Compiler and run-time data
===========================================================================
RASPA 2.0.50
Compiled as a 64-bits application
Compiler: gcc 11.3.0
Compile Date = Feb 14 2025, Compile Time = 14:04:12

Wed Feb 19 01:40:33 2025
Simulation started on Wednesday, February 19.
The start time was 01:40 AM.

Hostname:    SG02
OS type:     Linux on x86_64
OS release:  4.18.0-425.3.1.el8.x86_64
OS version:  #1 SMP Wed Nov 9 20:13:27 UTC 2022

Simulation
===========================================================================
Dimensions: 3
Random number seed: 1739896832
RASPA directory set to: /home/scd/Research/
String appended to output-files: 
Number of cycles: 20000
Number of initializing cycles: 10000
Number of equilibration cycles: 0
Print every: 5000
Triclinic boundary condition applied
Timestep: 0.000500
	Degrees of freedom:                        0
	Translational Degrees of freedom:          0
	Rotational Degrees of freedom:             0
	Degrees of freedom Framework:              0


Mutual consistent basic set of units:
======================================
Unit of temperature: Kelvin
Unit of length:      1e-10 [m]
Unit of time:        1e-12 [s]
Unit of mass:        1.66054e-27 [kg]
Unit of charge:      1.60218e-19 [C/particle]

Derived units and their conversion factors:
===========================================
Unit of energy:              1.66054e-23 [J]
Unit of force:               1.66054e-13 [N]
Unit of pressure:            1.66054e+07 [Pa]
Unit of velocity:            100 [m/s]
Unit of acceleration:        1e-08 [m^2/s]
Unit of diffusion:           1e-08 [m^2/s]
Unit of dipole moment:       1.60218e-29 [C.m]
Unit of electric potential:  0.000103643 [V]
Unit of electric field:      1.03643e+06 [V]
Unit of polarizability:      1.54587e-35 [-]
Unit of Coulomb potential:   167101.0800066561  [K]
Unit of dielectric constant: 0.0000154587       [s^2 C^2/(kg m^3)]
Unit of wave vectors:        5.3088374589       [cm^1]
Boltzmann constant:          0.8314464919       [-]

Internal conversion factors:
===========================================
Energy to Kelvin:                                    1.2027242847
FH correction factor                                 2.0211930949
Heat capacity conversion factor:                    10.0000088723
From Debye to internal units:                        4.8032067991
Isothermal compressibility conversion factor:        0.0000000602

Energy conversion factors:
===========================================
From mdyne/A to kcal/mol/A^2:           143.933
From mdyne/A to kj/mol/A^2:             602.214
From mdyne/A to K/A^2:                  72429.7
From mdyne A/rad^2 to kcal/mol/deg^2:   0.0438444


Properties computed
===========================================================================
Movies: yes
	Movie snapshots are appended to file every 5000 cycles
Radial Distribution Function: no
Number of molecules GCMC histogram: no
Histogram of the molecule positions: no
Free energy profiles: no
Pore Size Distribution Function: no
End-to-end distance: no
Histogram of the energy of the system: no
Compute thermodynamic factors: no
Framework spacing histograms: no
Residence times histograms: no
Distance histograms: no
Bend Angle histograms: no
Dihedral angle histograms: no
Angle between planes histograms: no
Molecule properties: no
Infra-red spectra: no
Mean-squared displacement using modified order-N algorithm: no
Velocity-autocorrelation function modified order-N algorithm: no
Rotational velocity-autocorrelation function modified order-N algorithm: no
Molecular orientation-autocorrelation function modified order-N algorithm: no
Bond orientation-autocorrelation function modified order-N algorithm: no
Mean-squared displacement (conventional algorithm): no
Velocity-autocorrelation function (conventional algorithm): no
3D density grid for adsorbates: no
Compute cation an/or adsorption sites: no
dcTST snapshots: no
Compute pressure and stress: no


VTK
===========================================================================
VTK fractional-range position framework atoms: [-0.001000,1.001000] [-0.001000,1.001000] [-0.001000,1.001000]
VTK fractional-range position framework bonds: [-0.151000,1.151000] [-0.151000,1.151000] [-0.151000,1.151000]
VTK fractional-range com-position adsorbate molecules: [-0.101000,1.101000] [-0.101000,1.101000] [-0.101000,1.101000]
VTK fractional-range com-position cation molecules: [-0.101000,1.101000] [-0.101000,1.101000] [-0.101000,1.101000]
	3D free energy grid made for the full simulation-cell


Thermo/Baro-stat NHC parameters
===========================================================================
External temperature: 298 [K]
Beta: 0.00403598 [energy unit]
External Pressure: 100000 [Pa]


Thermostat chain-length: 3
Timescale parameter for thermostat: 0.150000 [ps]
Barostat chain-length:   3
Timescale parameter for barostat:   0.150000 [ps]

Number of Yoshida-Suzuki decomposition steps: 5
Number of respa steps: 5


Method and settings for electrostatics
===============================================================================
Dielectric constant of the medium : 1.000000
Charge from charge-equilibration: no
Ewald summation is used (exact solution of a periodic system)
Relative precision                : 1e-06
Alpha convergence parameter       : 0.265058
kvec (x,y,z)                      : 10 8 10


CFC-RXMC parameters
===========================================================================
Number of reactions: 0


Rattle parameters
===========================================================================
Distance constraint type: r^2-r^2_0
Bend angle constraint type: theta-theta_0
Dihedral angle constraint type: phi-phi_0
Inversion-bend angle constraint type: chi-chi_0
Out-of-plane distance constraint type: r-r_0


Spectra parameters
===========================================================================
Compute normal modes: no


Minimization parameters
===========================================================================
Generalized coordinates are: Cartesian center-of-mass, elements of the orientational matrix p1,p2,p3 and strain
Potential derivatives are evaluated: analytically
Translation of the system is removed from the generalized Hessian: no
Rotation of the system is removed from the generalized Hessian: no
Maximum step-length: 0.3
Convergence factor: 1
Maximum number of minimization steps: 10000
Use gradients in the line-minimizations: yes
RMS gradient tolerance: 1e-06
Maximum gradient tolerance: 1e-06

Distance constraints: 0
Angle constraints: 0
Dihedral constraints: 0

Improper dihedral constraints: 0

Inversion-bend constraints: 0

Out-of-plane constraints: 0

Harmonic distance constraints: 0
Harmonic angle constraints: 0
Harmonic dihedral constraints: 0

Dihedral mid-point measurements: 0

All framework atoms are fixed

Fixed adsorbate atoms:  
Fixed adsorbate groups (center-of-mass):  
Fixed adsorbate groups (orientation):  

Fixed cation atoms:  
Fixed cation groups (center-of-mass):  
Fixed cation groups (orientation):  


dcTST parameters
===========================================================================
Free energy profiles computed: no
Free energy profiles written every 5000 cycles
Free energy mapping: mapped to a,b,c-coordinates
BarrierPosition:       0.0000000000       0.0000000000       0.0000000000
BarrierNormal:         0.0000000000       0.0000000000       0.0000000000
Start with a molecule on top of the barrier: no
Maximum distance to barrier (e.g. distance to minumum free energy):       0.0000000000 [A]
Maximum trajectory time:      10.0000000000 [ps]
Each configuration is used with 5 different initial velocities


Cbmc parameters
===========================================================================
Biasing method: using only the VDW part
Number of trial positions:                                       10
Number of trial positions (reinsertion):                         10
Number of trial positions (partial reinsertion):                 10
Number of trial positions (identity-change):                     10
Number of trial positions (Gibbs particle transfer):             10
Number of trial positions (insertion/deletion):                  10
Number of trial positions (Widom insertion):                     10
Number of trial positions coupled Torsion-selection:             100
Number of trial positions first bead:                            10
Number of trial positions first bead (reinsertion):              10
Number of trial positions first bead (partial reinsertion):      10
Number of trial positions first bead (identity-change):          10
Number of trial positions first bead (Gibbs particle transfer):  10
Number of trial positions first bead (insertion/deletion):       10
Number of trial positions first bead (Widom insertion):          10
Number of trial moves per open bead:                             150
Target acceptance ratio small-mc scheme:                         0.400000
Energy overlap criteria:                                         1e+07
Minimal Rosenbluth factor:                                       1e-150


Pseudo atoms: 14
===========================================================================
Pseudo Atom[   0] Name UNIT     Oxidation:          Element: H    pdb-name: H    Scat. Types:   1   1 Mass=1.000000000  B-factor:0.000   
                 Charge=1.000000000          Polarization=0.000000000  [A^3] (considered a charged atom and no polarization)  Interactions: yes
                 Anisotropic factor:    0.000 [-] (Absolute), Radius:    1.000 [A], Framework-atom:  no
Pseudo Atom[   1] Name C        Oxidation: +0       Element: C    pdb-name: C    Scat. Types:   7   6 Mass=12.011000000 B-factor:1.000   
                 Charge=0.264697802    (av)  Polarization=0.000000000  [A^3] (considered a charged atom and no polarization)  Interactions: yes
                 Anisotropic factor:    0.000 [-] (Relative), Radius:    1.000 [A], Framework-atom: yes (charge from structure file)
Pseudo Atom[   2] Name H        Oxidation: +0       Element: H    pdb-name: H    Scat. Types:   1   1 Mass=1.008000000  B-factor:1.000   
                 Charge=0.114260506    (av)  Polarization=0.000000000  [A^3] (considered a charged atom and no polarization)  Interactions: yes
                 Anisotropic factor:    0.000 [-] (Relative), Radius:    1.000 [A], Framework-atom: yes (charge from structure file)
Pseudo Atom[   3] Name N        Oxidation: +0       Element: N    pdb-name: N    Scat. Types:   8   7 Mass=14.007000000 B-factor:1.000   
                 Charge=-0.238302369   (av)  Polarization=0.000000000  [A^3] (considered a charged atom and no polarization)  Interactions: yes
                 Anisotropic factor:    0.000 [-] (Relative), Radius:    1.000 [A], Framework-atom: yes (charge from structure file)
Pseudo Atom[   4] Name O        Oxidation: +0       Element: O    pdb-name: O    Scat. Types:   9   8 Mass=15.999000000 B-factor:1.000   
                 Charge=-0.505271178   (av)  Polarization=0.000000000  [A^3] (considered a charged atom and no polarization)  Interactions: yes
                 Anisotropic factor:    0.000 [-] (Relative), Radius:    1.000 [A], Framework-atom: yes (charge from structure file)
Pseudo Atom[   5] Name S        Oxidation: +0       Element: S    pdb-name: S    Scat. Types:  17  14 Mass=32.066000000 B-factor:1.000   
                 Charge=0.000000000          Polarization=0.000000000  [A^3] (considered a chargeless atom and no polarization)  Interactions: yes
                 Anisotropic factor:    0.000 [-] (Relative), Radius:    1.000 [A], Framework-atom:  no
Pseudo Atom[   6] Name Zn       Oxidation: +0       Element: Zn   pdb-name: Zn   Scat. Types:  31  30 Mass=65.390000000 B-factor:1.000   
                 Charge=0.702835045    (av)  Polarization=0.000000000  [A^3] (considered a charged atom and no polarization)  Interactions: yes
                 Anisotropic factor:    0.000 [-] (Relative), Radius:    1.000 [A], Framework-atom: yes (charge from structure file)
Pseudo Atom[   7] Name C_co2    Oxidation: +0       Element: C    pdb-name: C    Scat. Types:   7   6 Mass=12.000000000 B-factor:1.000   
                 Charge=0.700000000          Polarization=0.000000000  [A^3] (considered a charged atom and no polarization)  Interactions: yes
                 Anisotropic factor:    0.000 [-] (Relative), Radius:    1.000 [A], Framework-atom:  no
Pseudo Atom[   8] Name O_co2    Oxidation: +0       Element: O    pdb-name: O    Scat. Types:   9   8 Mass=15.999400000 B-factor:1.000   
                 Charge=-0.350000000         Polarization=0.000000000  [A^3] (considered a charged atom and no polarization)  Interactions: yes
                 Anisotropic factor:    0.000 [-] (Relative), Radius:    1.000 [A], Framework-atom:  no
Pseudo Atom[   9] Name N_n2     Oxidation: +0       Element: N    pdb-name: N    Scat. Types:   8   7 Mass=14.006700000 B-factor:1.000   
                 Charge=-0.482000000         Polarization=0.000000000  [A^3] (considered a charged atom and no polarization)  Interactions: yes
                 Anisotropic factor:    0.000 [-] (Relative), Radius:    1.000 [A], Framework-atom:  no
Pseudo Atom[  10] Name N_com    Oxidation: +0       Element: -    pdb-name: N    Scat. Types:   0   7 Mass=0.000000000  B-factor:1.000   
                 Charge=0.964000000          Polarization=0.000000000  [A^3] (considered a charged atom and no polarization)  Interactions: yes
                 Anisotropic factor:    0.000 [-] (Relative), Radius:    1.000 [A], Framework-atom:  no
Pseudo Atom[  11] Name C_co2_mod Oxidation: +0       Element: C    pdb-name: C    Scat. Types:   7   6 Mass=12.000000000 B-factor:1.000   
                 Charge=0.651200000          Polarization=0.000000000  [A^3] (considered a charged atom and no polarization)  Interactions: yes
                 Anisotropic factor:    0.000 [-] (Relative), Radius:    1.000 [A], Framework-atom:  no
Pseudo Atom[  12] Name O_co2_mod Oxidation: +0       Element: O    pdb-name: O    Scat. Types:   9   8 Mass=15.999400000 B-factor:1.000   
                 Charge=-0.325600000         Polarization=0.000000000  [A^3] (considered a charged atom and no polarization)  Interactions: yes
                 Anisotropic factor:    0.000 [-] (Relative), Radius:    1.000 [A], Framework-atom:  no
Pseudo Atom[  13] Name CH4_sp3  Oxidation: +0       Element: C    pdb-name: C    Scat. Types:   7   6 Mass=16.042460000 B-factor:1.000   
                 Charge=0.000000000          Polarization=0.000000000  [A^3] (considered a chargeless atom and no polarization)  Interactions: yes
                 Anisotropic factor:    0.000 [-] (Absolute), Radius:    1.000 [A], Framework-atom:  no


Forcefield: Local
===========================================================================
Minimal distance: 1
CutOff VDW : 14.000000 (196.000000)
CutOff VDW switching on: 12.600000 (158.760000)
CutOff charge-charge : 12.000000 (144.000000)
CutOff charge-charge switching on: 7.800000 (60.840000)
CutOff charge-bonddipole : 12.000000 (144.000000)
CutOff charge-bondipole switching on: 8.400000 (70.560000)
CutOff bonddipole-bonddipole : 12.000000 (144.000000)
CutOff bonddipole-bondipole switching on: 9.000000 (81.000000)
Polarization is neglected
TailCorrections are used
All potentials are unshifted !!!!!!

General mixing rule: Lorentz-Berthelot mixing rules are used FIRST for cross terms
0 cross terms are overwritten using the individual mixing rules from the file 'force_field_mixing_rules.def'
and then 0 terms are overwritten using the specific interactions from the file 'force_field.def'

The force field and all the interactions:
      C -       C [LENNARD_JONES] p_0/k_B:  47.86000 [K], p_1: 3.47000 [A], shift/k_B:   0.00000000 [K], tailcorrection: yes
      C -       H [LENNARD_JONES] p_0/k_B:  19.13450 [K], p_1: 3.16000 [A], shift/k_B:   0.00000000 [K], tailcorrection: yes
      C -       N [LENNARD_JONES] p_0/k_B:  43.17577 [K], p_1: 3.36500 [A], shift/k_B:   0.00000000 [K], tailcorrection: yes
      C -       O [LENNARD_JONES] p_0/k_B:  48.00977 [K], p_1: 3.25000 [A], shift/k_B:   0.00000000 [K], tailcorrection: yes
      C -       S [LENNARD_JONES] p_0/k_B:  91.02222 [K], p_1: 3.53000 [A], shift/k_B:   0.00000000 [K], tailcorrection: yes
      C -      Zn [LENNARD_JONES] p_0/k_B:  36.39732 [K], p_1: 3.75500 [A], shift/k_B:   0.00000000 [K], tailcorrection: yes
      C -   C_co2 [LENNARD_JONES] p_0/k_B:  35.94746 [K], p_1: 3.13500 [A], shift/k_B:   0.00000000 [K], tailcorrection: yes
      C -   O_co2 [LENNARD_JONES] p_0/k_B:  61.48935 [K], p_1: 3.26000 [A], shift/k_B:   0.00000000 [K], tailcorrection: yes
      C -    N_n2 [LENNARD_JONES] p_0/k_B:  41.50855 [K], p_1: 3.39000 [A], shift/k_B:   0.00000000 [K], tailcorrection: yes
      C -   N_com [LENNARD_JONES] p_0/k_B:   0.00000 [K], p_1: 1.73500 [A], shift/k_B:   0.00000000 [K], tailcorrection: yes
      C - C_co2_mod [LENNARD_JONES] p_0/k_B:  37.84962 [K], p_1: 3.10750 [A], shift/k_B:   0.00000000 [K], tailcorrection: yes
      C - O_co2_mod [LENNARD_JONES] p_0/k_B:  64.03291 [K], p_1: 3.24350 [A], shift/k_B:   0.00000000 [K], tailcorrection: yes
      C - CH4_sp3 [LENNARD_JONES] p_0/k_B:  84.16222 [K], p_1: 3.60000 [A], shift/k_B:   0.00000000 [K], tailcorrection: yes
      H -       H [LENNARD_JONES] p_0/k_B:   7.65000 [K], p_1: 2.85000 [A], shift/k_B:   0.00000000 [K], tailcorrection: yes
      H -       N [LENNARD_JONES] p_0/k_B:  17.26174 [K], p_1: 3.05500 [A], shift/k_B:   0.00000000 [K], tailcorrection: yes
      H -       O [LENNARD_JONES] p_0/k_B:  19.19437 [K], p_1: 2.94000 [A], shift/k_B:   0.00000000 [K], tailcorrection: yes
      H -       S [LENNARD_JONES] p_0/k_B:  36.39082 [K], p_1: 3.22000 [A], shift/k_B:   0.00000000 [K], tailcorrection: yes
      H -      Zn [LENNARD_JONES] p_0/k_B:  14.55170 [K], p_1: 3.44500 [A], shift/k_B:   0.00000000 [K], tailcorrection: yes
      H -   C_co2 [LENNARD_JONES] p_0/k_B:  14.37185 [K], p_1: 2.82500 [A], shift/k_B:   0.00000000 [K], tailcorrection: yes
      H -   O_co2 [LENNARD_JONES] p_0/k_B:  24.58353 [K], p_1: 2.95000 [A], shift/k_B:   0.00000000 [K], tailcorrection: yes
      H -    N_n2 [LENNARD_JONES] p_0/k_B:  16.59518 [K], p_1: 3.08000 [A], shift/k_B:   0.00000000 [K], tailcorrection: yes
      H -   N_com [LENNARD_JONES] p_0/k_B:   0.00000 [K], p_1: 1.42500 [A], shift/k_B:   0.00000000 [K], tailcorrection: yes
      H - C_co2_mod [LENNARD_JONES] p_0/k_B:  15.13233 [K], p_1: 2.79750 [A], shift/k_B:   0.00000000 [K], tailcorrection: yes
      H - O_co2_mod [LENNARD_JONES] p_0/k_B:  25.60045 [K], p_1: 2.93350 [A], shift/k_B:   0.00000000 [K], tailcorrection: yes
      H - CH4_sp3 [LENNARD_JONES] p_0/k_B:  33.64818 [K], p_1: 3.29000 [A], shift/k_B:   0.00000000 [K], tailcorrection: yes
      N -       N [LENNARD_JONES] p_0/k_B:  38.95000 [K], p_1: 3.26000 [A], shift/k_B:   0.00000000 [K], tailcorrection: yes
      N -       O [LENNARD_JONES] p_0/k_B:  43.31088 [K], p_1: 3.14500 [A], shift/k_B:   0.00000000 [K], tailcorrection: yes
      N -       S [LENNARD_JONES] p_0/k_B:  82.11355 [K], p_1: 3.42500 [A], shift/k_B:   0.00000000 [K], tailcorrection: yes
      N -      Zn [LENNARD_JONES] p_0/k_B:  32.83498 [K], p_1: 3.65000 [A], shift/k_B:   0.00000000 [K], tailcorrection: yes
      N -   C_co2 [LENNARD_JONES] p_0/k_B:  32.42915 [K], p_1: 3.03000 [A], shift/k_B:   0.00000000 [K], tailcorrection: yes
      N -   O_co2 [LENNARD_JONES] p_0/k_B:  55.47116 [K], p_1: 3.15500 [A], shift/k_B:   0.00000000 [K], tailcorrection: yes
      N -    N_n2 [LENNARD_JONES] p_0/k_B:  37.44596 [K], p_1: 3.28500 [A], shift/k_B:   0.00000000 [K], tailcorrection: yes
      N -   N_com [LENNARD_JONES] p_0/k_B:   0.00000 [K], p_1: 1.63000 [A], shift/k_B:   0.00000000 [K], tailcorrection: yes
      N - C_co2_mod [LENNARD_JONES] p_0/k_B:  34.14514 [K], p_1: 3.00250 [A], shift/k_B:   0.00000000 [K], tailcorrection: yes
      N - O_co2_mod [LENNARD_JONES] p_0/k_B:  57.76578 [K], p_1: 3.13850 [A], shift/k_B:   0.00000000 [K], tailcorrection: yes
      N - CH4_sp3 [LENNARD_JONES] p_0/k_B:  75.92496 [K], p_1: 3.49500 [A], shift/k_B:   0.00000000 [K], tailcorrection: yes
      O -       O [LENNARD_JONES] p_0/k_B:  48.16000 [K], p_1: 3.03000 [A], shift/k_B:   0.00000000 [K], tailcorrection: yes
      O -       S [LENNARD_JONES] p_0/k_B:  91.30705 [K], p_1: 3.31000 [A], shift/k_B:   0.00000000 [K], tailcorrection: yes
      O -      Zn [LENNARD_JONES] p_0/k_B:  36.51121 [K], p_1: 3.53500 [A], shift/k_B:   0.00000000 [K], tailcorrection: yes
      O -   C_co2 [LENNARD_JONES] p_0/k_B:  36.05995 [K], p_1: 2.91500 [A], shift/k_B:   0.00000000 [K], tailcorrection: yes
      O -   O_co2 [LENNARD_JONES] p_0/k_B:  61.68176 [K], p_1: 3.04000 [A], shift/k_B:   0.00000000 [K], tailcorrection: yes
      O -    N_n2 [LENNARD_JONES] p_0/k_B:  41.63844 [K], p_1: 3.17000 [A], shift/k_B:   0.00000000 [K], tailcorrection: yes
      O -   N_com [LENNARD_JONES] p_0/k_B:   0.00000 [K], p_1: 1.51500 [A], shift/k_B:   0.00000000 [K], tailcorrection: yes
      O - C_co2_mod [LENNARD_JONES] p_0/k_B:  37.96806 [K], p_1: 2.88750 [A], shift/k_B:   0.00000000 [K], tailcorrection: yes
      O - O_co2_mod [LENNARD_JONES] p_0/k_B:  64.23329 [K], p_1: 3.02350 [A], shift/k_B:   0.00000000 [K], tailcorrection: yes
      O - CH4_sp3 [LENNARD_JONES] p_0/k_B:  84.42559 [K], p_1: 3.38000 [A], shift/k_B:   0.00000000 [K], tailcorrection: yes
      S -       S [LENNARD_JONES] p_0/k_B: 173.11000 [K], p_1: 3.59000 [A], shift/k_B:   0.00000000 [K], tailcorrection: yes
      S -      Zn [LENNARD_JONES] p_0/k_B:  69.22200 [K], p_1: 3.81500 [A], shift/k_B:   0.00000000 [K], tailcorrection: yes
      S -   C_co2 [LENNARD_JONES] p_0/k_B:  68.36644 [K], p_1: 3.19500 [A], shift/k_B:   0.00000000 [K], tailcorrection: yes
      S -   O_co2 [LENNARD_JONES] p_0/k_B: 116.94311 [K], p_1: 3.32000 [A], shift/k_B:   0.00000000 [K], tailcorrection: yes
      S -    N_n2 [LENNARD_JONES] p_0/k_B:  78.94276 [K], p_1: 3.45000 [A], shift/k_B:   0.00000000 [K], tailcorrection: yes
      S -   N_com [LENNARD_JONES] p_0/k_B:   0.00000 [K], p_1: 1.79500 [A], shift/k_B:   0.00000000 [K], tailcorrection: yes
      S - C_co2_mod [LENNARD_JONES] p_0/k_B:  71.98404 [K], p_1: 3.16750 [A], shift/k_B:   0.00000000 [K], tailcorrection: yes
      S - O_co2_mod [LENNARD_JONES] p_0/k_B: 121.78057 [K], p_1: 3.30350 [A], shift/k_B:   0.00000000 [K], tailcorrection: yes
      S - CH4_sp3 [LENNARD_JONES] p_0/k_B: 160.06336 [K], p_1: 3.66000 [A], shift/k_B:   0.00000000 [K], tailcorrection: yes
     Zn -      Zn [LENNARD_JONES] p_0/k_B:  27.68000 [K], p_1: 4.04000 [A], shift/k_B:   0.00000000 [K], tailcorrection: yes
     Zn -   C_co2 [LENNARD_JONES] p_0/k_B:  27.33789 [K], p_1: 3.42000 [A], shift/k_B:   0.00000000 [K], tailcorrection: yes
     Zn -   O_co2 [LENNARD_JONES] p_0/k_B:  46.76238 [K], p_1: 3.54500 [A], shift/k_B:   0.00000000 [K], tailcorrection: yes
     Zn -    N_n2 [LENNARD_JONES] p_0/k_B:  31.56707 [K], p_1: 3.67500 [A], shift/k_B:   0.00000000 [K], tailcorrection: yes
     Zn -   N_com [LENNARD_JONES] p_0/k_B:   0.00000 [K], p_1: 2.02000 [A], shift/k_B:   0.00000000 [K], tailcorrection: yes
     Zn - C_co2_mod [LENNARD_JONES] p_0/k_B:  28.78447 [K], p_1: 3.39250 [A], shift/k_B:   0.00000000 [K], tailcorrection: yes
     Zn - O_co2_mod [LENNARD_JONES] p_0/k_B:  48.69675 [K], p_1: 3.52850 [A], shift/k_B:   0.00000000 [K], tailcorrection: yes
     Zn - CH4_sp3 [LENNARD_JONES] p_0/k_B:  64.00500 [K], p_1: 3.88500 [A], shift/k_B:   0.00000000 [K], tailcorrection: yes
  C_co2 -   C_co2 [LENNARD_JONES] p_0/k_B:  27.00000 [K], p_1: 2.80000 [A], shift/k_B:   0.00000000 [K], tailcorrection: yes
  C_co2 -   O_co2 [LENNARD_JONES] p_0/k_B:  46.18441 [K], p_1: 2.92500 [A], shift/k_B:   0.00000000 [K], tailcorrection: yes
  C_co2 -    N_n2 [LENNARD_JONES] p_0/k_B:  31.17691 [K], p_1: 3.05500 [A], shift/k_B:   0.00000000 [K], tailcorrection: yes
  C_co2 -   N_com [LENNARD_JONES] p_0/k_B:   0.00000 [K], p_1: 1.40000 [A], shift/k_B:   0.00000000 [K], tailcorrection: yes
  C_co2 - C_co2_mod [LENNARD_JONES] p_0/k_B:  28.42870 [K], p_1: 2.77250 [A], shift/k_B:   0.00000000 [K], tailcorrection: yes
  C_co2 - O_co2_mod [LENNARD_JONES] p_0/k_B:  48.09487 [K], p_1: 2.90850 [A], shift/k_B:   0.00000000 [K], tailcorrection: yes
  C_co2 - CH4_sp3 [LENNARD_JONES] p_0/k_B:  63.21392 [K], p_1: 3.26500 [A], shift/k_B:   0.00000000 [K], tailcorrection: yes
  O_co2 -   O_co2 [LENNARD_JONES] p_0/k_B:  79.00000 [K], p_1: 3.05000 [A], shift/k_B:   0.00000000 [K], tailcorrection: yes
  O_co2 -    N_n2 [LENNARD_JONES] p_0/k_B:  53.32917 [K], p_1: 3.18000 [A], shift/k_B:   0.00000000 [K], tailcorrection: yes
  O_co2 -   N_com [LENNARD_JONES] p_0/k_B:   0.00000 [K], p_1: 1.52500 [A], shift/k_B:   0.00000000 [K], tailcorrection: yes
  O_co2 - C_co2_mod [LENNARD_JONES] p_0/k_B:  48.62825 [K], p_1: 2.89750 [A], shift/k_B:   0.00000000 [K], tailcorrection: yes
  O_co2 - O_co2_mod [LENNARD_JONES] p_0/k_B:  82.26791 [K], p_1: 3.03350 [A], shift/k_B:   0.00000000 [K], tailcorrection: yes
  O_co2 - CH4_sp3 [LENNARD_JONES] p_0/k_B: 108.12955 [K], p_1: 3.39000 [A], shift/k_B:   0.00000000 [K], tailcorrection: yes
   N_n2 -    N_n2 [LENNARD_JONES] p_0/k_B:  36.00000 [K], p_1: 3.31000 [A], shift/k_B:   0.00000000 [K], tailcorrection: yes
   N_n2 -   N_com [LENNARD_JONES] p_0/k_B:   0.00000 [K], p_1: 1.65500 [A], shift/k_B:   0.00000000 [K], tailcorrection: yes
   N_n2 - C_co2_mod [LENNARD_JONES] p_0/k_B:  32.82664 [K], p_1: 3.02750 [A], shift/k_B:   0.00000000 [K], tailcorrection: yes
   N_n2 - O_co2_mod [LENNARD_JONES] p_0/k_B:  55.53518 [K], p_1: 3.16350 [A], shift/k_B:   0.00000000 [K], tailcorrection: yes
   N_n2 - CH4_sp3 [LENNARD_JONES] p_0/k_B:  72.99315 [K], p_1: 3.52000 [A], shift/k_B:   0.00000000 [K], tailcorrection: yes
  N_com -   N_com [LENNARD_JONES] p_0/k_B:   0.00000 [K], p_1: 0.00000 [A], shift/k_B:   0.00000000 [K], tailcorrection: yes
  N_com - C_co2_mod [LENNARD_JONES] p_0/k_B:   0.00000 [K], p_1: 1.37250 [A], shift/k_B:   0.00000000 [K], tailcorrection: yes
  N_com - O_co2_mod [LENNARD_JONES] p_0/k_B:   0.00000 [K], p_1: 1.50850 [A], shift/k_B:   0.00000000 [K], tailcorrection: yes
  N_com - CH4_sp3 [LENNARD_JONES] p_0/k_B:   0.00000 [K], p_1: 1.86500 [A], shift/k_B:   0.00000000 [K], tailcorrection: yes
C_co2_mod - C_co2_mod [LENNARD_JONES] p_0/k_B:  29.93300 [K], p_1: 2.74500 [A], shift/k_B:   0.00000000 [K], tailcorrection: yes
C_co2_mod - O_co2_mod [LENNARD_JONES] p_0/k_B:  50.63981 [K], p_1: 2.88100 [A], shift/k_B:   0.00000000 [K], tailcorrection: yes
C_co2_mod - CH4_sp3 [LENNARD_JONES] p_0/k_B:  66.55888 [K], p_1: 3.23750 [A], shift/k_B:   0.00000000 [K], tailcorrection: yes
O_co2_mod - O_co2_mod [LENNARD_JONES] p_0/k_B:  85.67100 [K], p_1: 3.01700 [A], shift/k_B:   0.00000000 [K], tailcorrection: yes
O_co2_mod - CH4_sp3 [LENNARD_JONES] p_0/k_B: 112.60243 [K], p_1: 3.37350 [A], shift/k_B:   0.00000000 [K], tailcorrection: yes
CH4_sp3 - CH4_sp3 [LENNARD_JONES] p_0/k_B: 148.00000 [K], p_1: 3.73000 [A], shift/k_B:   0.00000000 [K], tailcorrection: yes


MoleculeDefinitions:
===========================================================================
Component 0 [CH4] (Adsorbate molecule)

	MoleculeDefinitions: Local
	Component contains no atoms with charge
	Component contains no atoms with point dipoles (polarization)
	Component has a net charge of 0.000000

	Ideal chain Rosenbluth weight: 1
	Ideal chain total energy: 0.000000

	Critical temparure [K]: 190.564000
	Critical pressure [Pa]: 4599200.000000
	Acentric factor [-]: 0.011420

	RXMC partition factor ln(q/V) [ln(A^(-3))]:       0.0000000000

	Vapour=stable, Liquid=metastable

	MolFraction:           1.0000000000 [-]
	Compressibility:       0.9977793132 [-]

	Density of the bulk fluid phase:       0.6489121417 [kg/m^3]

	Binary mixture EOS parameters:  (0): 0.000000

	Amount of excess molecules:       0.0000000000 [-]

	Conversion factor molecules/unit cell -> mol/kg:       1.4087840503 [-]
	Conversion factor molecules/unit cell -> mg/g:      22.6003617757 [-]
	Conversion factor molecules/unit cell -> cm^3 STP/gr:      31.5764515373 [-]
	Conversion factor molecules/unit cell -> cm^3 STP/cm^3:      47.8655922748 [-]
	Conversion factor mol/kg -> cm^3 STP/gr:      22.4139757476 [-]
	Conversion factor mol/kg -> cm^3 STP/cm^3:      33.9765290956 [-]

	Partial pressure:    100000.00000000000000 [Pa]
	                        750.00000000000000 [Torr]
	                          1.00000000000000 [bar]
	                          0.98692326671601 [atm]

	Fugacity coefficient:       0.9977800827 [-]

	Partial fugacity:     99778.00826865001000 [Pa]
	                        748.33506201487501 [Torr]
	                          0.99778008268650 [bar]
	                          0.98473237866913 [atm]

	Molecule contains 1 number of atoms
		atom:    0  is of type:   13 [   CH4_sp3] (group: 0)

	Molecule contains 0 chirality centers

	Molecule contains 1 number of groups

		group: 0 containing: 1 elements
		-------------------------------------------------
		the group is modelled as flexible, i.e. no constraints
		Mass: 16.042460 [a.u.]
		Mass: 0.713731 [kg/m^3]

		Rotational Degrees of freedom: 0
		Diagonalized inertia vector:       0.0000000000
		                                   0.0000000000
		                                   0.0000000000
		element: 0 atom: 0 [   CH4_sp3] Charge:  0.000000 Anisotropy: 0.000000 Connectivity: 0 ()

		Dipole:           0.0000000000 [D]
		Quadrupole:       0.0000000000       0.0000000000       0.0000000000 [D Angstrom]
		Quadrupole tensor [D Angstrom]
				       0.0000000000       0.0000000000       0.0000000000
				       0.0000000000       0.0000000000       0.0000000000
				       0.0000000000       0.0000000000       0.0000000000

	Starting bead for growth               : 0

	Degrees of freedom                     : 0
	Translational degrees of freedom       : 0
	Rotational degrees of freedom          : 0
	Vibrational degrees of freedom         : 0
	Constraint degrees of freedom          : 0

	Number of atoms                        : 1

	Number of constraint bonds             : 0
	Number of constraint bends             : 0
	Number of constraint inversion bends   : 0
	Number of constraint torsions          : 0
	Number of constraint improper torsions : 0
	Number of constraint improper torsions : 0

	Number of bonds                        : 0
	Number of Urey-Bradleys                : 0
	Number of bends                        : 0
	Number of inversion bends              : 0
	Number of torsions                     : 0
	Number of improper torsions            : 0
	Number of improper torsions            : 0

	Number of bond/bond cross terms        : 0
	Number of bond/bend cross terms        : 0
	Number of bend/bend cross terms        : 0
	Number of stretch/torsion cross terms  : 0
	Number of bend/torsion cross terms     : 0

	Number of charges                      : 0
	Number of bond-dipoles                 : 0

	Number of intra Van der Waals                             : 0
	Number of intra charge-charge Coulomb                     : 0
	Number of intra charge-bonddipole Coulomb                 : 0
	Number of intra bonddipole-bonddipole Coulomb             : 0

	Number of excluded intra charge-charge Coulomb                     : 0
	Number of excluded intra charge-bonddipole Coulomb                 : 0
	Number of excluded intra bonddipole-bonddipole Coulomb             : 0

	Number of cbmc-config moves                               : 0

	Particle Moves:             
		ProbabilityTranslationMove:                  25.000000
			TranslationDirection:      XYZ
		Percentage of random translation moves:            0.000000
		Percentage of rotation moves:                      25.000000
		Percentage of random rotation moves:               0.000000
		Percentage of partial reinsertion moves:           0.000000
		Percentage of reinsertion moves:                   25.000000
		Percentage of reinsertion-in-place moves:          0.000000
		Percentage of reinsertion-in-plane moves:          0.000000
		Percentage of identity-change moves:               0.000000
		Percentage of swap (insert/delete) moves:          25.000000
		Percentage of CF swap lambda moves:                0.000000
		Percentage of CB/CFMC swap lambda moves:           0.000000
		Percentage of Widom insertion moves:               0.000000
		Percentage of CF-Widom insertion moves:            0.000000
		Percentage of Gibbs Widom insertion moves:         0.000000
		Percentage of surface-area moves:                  0.000000
		Percentage of Gibbs particle-transfer moves:       0.000000
		Percentage of Gibbs identity-change moves:         0.000000
		Percentage of CF Gibbs lambda-transfer moves:      0.000000
		Percentage of CB/CFMC Gibbs lambda-transfer moves: 0.000000
		Percentage of exchange frac./int. particle moves:  0.000000
		Percentage of fractional mol. to other box moves:  0.000000
		Percentage of lambda-change moves:                 0.000000
		Percentage of fractional to integer moves:         0.000000

	System Moves:
		Percentage of parallel-tempering moves:            0.000000
		Percentage of hyper-parallel-tempering moves:      0.000000
		Percentage of parallel-mol-fraction moves:         0.000000
			   Component A: 0 B: 1
		Percentage of chiral inversion moves:              0.000000
		Percentage of Hybrid-NVE moves:                    0.000000
		Percentage of Hybrid-NPH moves:                    0.000000
		Percentage of Hybrid-NPHPR moves:                  0.000000
		Percentage of volume-change moves:                 0.000000
		Percentage of box-shape-change moves:              0.000000
		Percentage of Gibbs volume-change moves:           0.000000
		Percentage of framework-change moves:              0.000000
		Percentage of framework-shift moves:               0.000000
		Percentage of reactive MC moves:                   0.000000

	Moves are restricted: No
	No biased sampling used for this component


	number of identity-config changes: 1
	--------------------------------------------
	nr fixed 1: 0 

	Number of pockets blocked in a unitcell: 0
		Pockets are NOT blocked for this component



Framework Status
===========================================================================
Lowenstein's rule obeyed by framework
	Framework is modelled as: rigid

	Number of charges:                               2112
	Number of bonddipoles:                           0


System Properties
===========================================================================
Unit cell size: 9.030260 10.049800 9.516710
Cell angles (radians)  alpha: 1.570775 beta: 2.021074 gamma: 1.570620
Cell angles (degrees)  alpha: 89.998800 beta: 115.799000 gamma: 89.989900
Number of unitcells [a]: 4
Number of unitcells [b]: 3
Number of unitcells [c]: 4

TRICLINIC Boundary conditions: alpha!=90 or beta!=90 or gamma!=90

Cartesian axis A is collinear with crystallographic axis a
Cartesian axis B is collinear with (axb)xA
Cartesian axis C is collinear with (axb)

lengths of cell vectors:
 36.12104  30.14940  38.06684
cosines of cell angles:
  0.00002  -0.43522   0.00018
perpendicular cell widths:
 32.52072  30.14940  34.27258
volume of the cell: 37323.787360193819 (A^3)

Orthogonalization matrix Box
Transforms fractional coordinates abc into orthonormal Cartesian coordinates xyz
Deorthogonalization matrix InverseBox
Transforms orthonormal Cartesian coordinates xyz into fractional coordinates xyz

Box[0]:
	   36.121040000000     0.005314683577   -16.567274455994
	    0.000000000000    30.149399531568     0.003717720297
	    0.000000000000     0.000000000000    34.272579577031

Inverse box[0]:
	    0.027684695679    -0.000004880210     0.013382709307
	    0.000000000000     0.033168156432    -0.000003597918
	    0.000000000000     0.000000000000     0.029177844573


Unitcell box[0]:
	    9.030260000000     0.001771561192    -4.141818613998
	    0.000000000000    10.049799843856     0.000929430074
	    0.000000000000     0.000000000000     8.568144894258

Unitcell inverse box[0]:
	    0.110738782715    -0.000019520840     0.053530837228
	    0.000000000000     0.099504469297    -0.000010793754
	    0.000000000000     0.000000000000     0.116711378290

lengths of cell vectors (inverse box):
  0.02768   0.03317   0.03210
cosines of cell angles (inverse box):
 -0.00017   0.41690  -0.00015
perpendicular cell widths (inverse):
  0.02516   0.03317   0.02918
volume of the cell: 37323.787360193819 (A^3)

No replicas are used
Framework is simulated as 'rigid'
Number of framework atoms: 2112
Number of framework atoms in the unit cell: 44
Framework Mass: 34071.936000000132 [g/mol]
Framework Density:  1515.863561119505 [kg/m^3]    0.6596899784711 [cm^3/g]
Helium void fraction:    0.00000000
Available pore volume:    0.00000000 [A^3]    0.00000000 [cm^3/g]
Conversion factor from molecule/unit cell -> kmol/m^3: 0.0444901, kmol/m^3 accesible pore volume: inf

Number Of Frameworks (per system): 1
----------------------------------------------------------------------
Framework name: CALF-20_MACE_opt_pacman
Space group: 1
	Identifier: 1
	short international Hermann-Mauguin symbol: P 1
	long international Hermann-Mauguin symbol: P 1
	Hall symbol: P 1
	Number of lattice translations: 1 [ (0,0,0) ]
	acentric/centric: acentric
	chiral: no
	enantiomorphic: no
	number of operators: 1
		'x,y,z'
Framework is simulated as 'rigid'
Shift: 0.000000 0.000000 0.000000
Number of framework atoms: 2112
Number of asymmetric atoms: 44
Number of free framework atoms: 0
Number of fixed framework atoms: 2112
Number of framework atoms in the unit cell: 44
Framework Mass: 34071.936000000132 [g/mol]
Framework Density:  1515.863561119505 [kg/m^3]
Framework has net charge: -0.000000
         largest charge : 0.702835
         smallest charge: -0.511744

Using FULL Host-guest interaction calculation (for testing purposes)

Current Atom Status
===========================================================================
Number of framework atoms        : 2112
Number of cations molecules      : 0
Number of adsorbate molecules    : 0
Component    0 :    0 molecules
Pseudo Atoms    0 [    UNIT]:    0 atoms
Pseudo Atoms    1 [       C]:  576 atoms
Pseudo Atoms    2 [       H]:  384 atoms
Pseudo Atoms    3 [       N]:  576 atoms
Pseudo Atoms    4 [       O]:  384 atoms
Pseudo Atoms    5 [       S]:    0 atoms
Pseudo Atoms    6 [      Zn]:  192 atoms
Pseudo Atoms    7 [   C_co2]:    0 atoms
Pseudo Atoms    8 [   O_co2]:    0 atoms
Pseudo Atoms    9 [    N_n2]:    0 atoms
Pseudo Atoms   10 [   N_com]:    0 atoms
Pseudo Atoms   11 [C_co2_mod]:    0 atoms
Pseudo Atoms   12 [O_co2_mod]:    0 atoms
Pseudo Atoms   13 [ CH4_sp3]:    0 atoms


Current (initial full energy) Energy Status
===========================================================================

Internal energy:
Host stretch energy:                                            0.00000000
Host UreyBradley energy:                                        0.00000000
Host bend energy:                                               0.00000000
Host inversion-bend energy:                                     0.00000000
Host torsion energy:                                            0.00000000
Host improper torsion energy:                                   0.00000000
Host out-of-plane energy:                                       0.00000000
Host stretch/stretch energy:                                    0.00000000
Host bend/bend energy:                                          0.00000000
Host stretch/bend energy:                                       0.00000000
Host stretch/torsion energy:                                    0.00000000
Host bend/torsion energy:                                       0.00000000

Adsorbate stretch energy:                                       0.00000000
Adsorbate UreyBradley energy:                                   0.00000000
Adsorbate bend energy:                                          0.00000000
Adsorbate inversion-bend energy:                                0.00000000
Adsorbate torsion energy:                                       0.00000000
Adsorbate improper torsion energy:                              0.00000000
Adsorbate out-of-plane energy:                                  0.00000000
Adsorbate stretch/stretch energy:                               0.00000000
Adsorbate bend/bend energy:                                     0.00000000
Adsorbate stretch/bend energy:                                  0.00000000
Adsorbate stretch/torsion energy:                               0.00000000
Adsorbate bend/torsion energy:                                  0.00000000
Adsorbate intra VDW energy:                                     0.00000000
Adsorbate intra charge-charge Coulomb energy:                   0.00000000
Adsorbate intra charge-bonddipole Coulomb energy:               0.00000000
Adsorbate intra bonddipole-bonddipole Coulomb energy:           0.00000000

Cation stretch energy:                                          0.00000000
Cation UreyBradley energy:                                      0.00000000
Cation bend energy:                                             0.00000000
Cation inversion-bend energy:                                   0.00000000
Cation torsion energy:                                          0.00000000
Cation improper torsion energy:                                 0.00000000
Cation out-of-plane energy:                                     0.00000000
Cation stretch/stretch energy:                                  0.00000000
Cation bend/bend energy:                                        0.00000000
Cation stretch/bend energy:                                     0.00000000
Cation stretch/torsion energy:                                  0.00000000
Cation bend/torsion energy:                                     0.00000000
Cation intra VDW energy:                                        0.00000000
Cation intra charge-charge Coulomb energy:                      0.00000000
Cation intra charge-bonddipole Coulomb energy:                  0.00000000
Cation intra bonddipole-bonddipole Coulomb energy:              0.00000000

Host/Host energy:                                             0.00000000
	Host/Host VDW energy:                                         0.00000000
	Host/Host Coulomb energy:                                     0.00000000
	Host/Host charge-charge Real energy:                          0.00000000
	Host/Host charge-charge Fourier energy:                       0.00000000
	Host/Host charge-bonddipole Real energy:                      0.00000000
	Host/Host charge-bonddipole Fourier energy:                   0.00000000
	Host/Host bondipole-bonddipole Real energy:                   0.00000000
	Host/Host bondipole-bonddipole Fourier energy:                0.00000000

Host/Adsorbate energy:                                        0.00000000
	Host/Adsorbate VDW energy:                                    0.00000000
	Host/Adsorbate Coulomb energy:                                0.00000000
	Host/Adsorbate charge-charge Real energy:                     0.00000000
	Host/Adsorbate charge-charge Fourier energy:                  0.00000000
	Host/Adsorbate charge-bonddipole Real energy:                 0.00000000
	Host/Adsorbate charge-bonddipole Fourier energy:              0.00000000
	Host/Adsorbate bondipole-bonddipole Real energy:              0.00000000
	Host/Adsorbate bondipole-bonddipole Fourier energy:           0.00000000

Host/Cation energy:                                           0.00000000
	Host/Cation VDW energy:                                       0.00000000
	Host/Cation Coulomb energy:                                   0.00000000
	Host/Cation charge-charge Real energy:                        0.00000000
	Host/Cation charge-charge Fourier energy:                     0.00000000
	Host/Cation charge-bonddipole Real energy:                    0.00000000
	Host/Cation charge-bonddipole Fourier energy:                 0.00000000
	Host/Cation bondipole-bonddipole Real energy:                 0.00000000
	Host/Cation bondipole-bonddipole Fourier energy:              0.00000000

Adsorbate/Adsorbate energy:                                        0.00000000
	Adsorbate/Adsorbate VDW energy:                                    0.00000000
	Adsorbate/Adsorbate Coulomb energy:                                0.00000000
	Adsorbate/Adsorbate charge-charge Real energy:                     0.00000000
	Adsorbate/Adsorbate charge-charge Fourier energy:                  0.00000000
	Adsorbate/Adsorbate charge-bonddipole Real energy:                 0.00000000
	Adsorbate/Adsorbate charge-bonddipole Fourier energy:              0.00000000
	Adsorbate/Adsorbate bondipole-bonddipole Real energy:              0.00000000
	Adsorbate/Adsorbate bondipole-bonddipole Fourier energy:           0.00000000

Adsorbate/Cation energy:                                           0.00000000
	Adsorbate/Cation VDW energy:                                       0.00000000
	Adsorbate/Cation Coulomb energy:                                   0.00000000
	Adsorbate/Cation charge-charge Real energy:                        0.00000000
	Adsorbate/Cation charge-charge Fourier energy:                     0.00000000
	Adsorbate/Cation charge-bonddipole Real energy:                    0.00000000
	Adsorbate/Cation charge-bonddipole Fourier energy:                 0.00000000
	Adsorbate/Cation bondipole-bonddipole Real energy:                 0.00000000
	Adsorbate/Cation bondipole-bonddipole Fourier energy:              0.00000000

Cation/Cation energy:                                           0.00000000
	Cation/Cation VDW energy:                                       0.00000000
	Cation/Cation Coulomb energy:                                   0.00000000
	Cation/Cation charge-charge Real energy:                        0.00000000
	Cation/Cation charge-charge Fourier energy:                     0.00000000
	Cation/Cation charge-bonddipole Real energy:                    0.00000000
	Cation/Cation charge-bonddipole Fourier energy:                 0.00000000
	Cation/Cation bondipole-bonddipole Real energy:                 0.00000000
	Cation/Cation bondipole-bonddipole Fourier energy:              0.00000000

Polarization energy:
	Host polarization energy:                                     0.00000000
	Adsorbate polarization energy:                                0.00000000
	Cation polarization energy:                                   0.00000000
	Host back-polarization energy:                                     0.00000000
	Adsorbate back-polarization energy:                                0.00000000
	Cation back-polarization energy:                                   0.00000000

Tail-correction energy:                                  -17262.72747631

Distance constraints energy:                                  0.00000000
Angle constraints energy:                                     0.00000000
Dihedral constraints energy:                                  0.00000000
Inversion-bend constraints energy:                            0.00000000
Out-of-plane distance constraints energy:                     0.00000000
Exclusion constraints energy:                                 0.00000000

===================================================================
Total energy: -17262.727476308006
	Total Van der Waals: 0.000000
	Total Coulomb: 0.000000

	Total Polarization: 0.000000







+++++++++++++++++++++++++++++++++++++++++++++++++++++++++++++++++++++++++
Starting simulation
+++++++++++++++++++++++++++++++++++++++++++++++++++++++++++++++++++++++++

[Init] Current cycle: 0 out of 10000
========================================================================================================

Net charge: -1.91999e-08 (F: -1.91999e-08, A: 0, C: 0)
Current Box:  36.12104   0.00531 -16.56727 [A]
               0.00000  30.14940   0.00372 [A]
               0.00000   0.00000  34.27258 [A]
Box-lengths:  36.12104  30.14940  38.06684 Box-angles:   89.99880 115.79900  89.98990 [degrees]
Volume: 37323.78736 [A^3]

Loadings per component:
----------------------------------------------------------------------------------------------------------------------------------------------------
Component 0 (CH4), current number of integer/fractional/reaction molecules: 0/0/0, density:   0.00000 [kg/m^3]
	absolute adsorption:   0.00000 [mol/uc],         0.0000 [mol/kg],              0.0000 [mg/g]
	                                                 0.0000 [cm^3 STP/g],          0.0000 [cm^3 STP/cm^3]
	excess adsorption:     0.00000 [mol/uc],         0.0000 [mol/kg],              0.0000 [mg/g]
	                                                 0.0000 [cm^3 STP/g],          0.0000 [cm^3 STP/cm^3]
----------------------------------------------------------------------------------------------------------------------------------------------------
Degrees of freedom: 0 0 0 0
Number of Framework-atoms:   2112
Number of Adsorbates:           0 (0 integer, 0 fractional, 0 reaction)
Number of Cations:              0 (0 integer, 0 fractional, 0 reaction

Current total potential energy:            -17262.7274763080 [K]
	Current Host-Host energy:                     0.0000000000 [K]
	Current Host-Adsorbate energy:                0.0000000000 [K]
	Current Host-Cation energy:                   0.0000000000 [K]
	Current Adsorbate-Adsorbate energy:           0.0000000000 [K]
	Current Cation-Cation energy:                 0.0000000000 [K]
	Current Adsorbate-Cation energy:              0.0000000000 [K]



[Init] Current cycle: 5000 out of 10000
========================================================================================================

Net charge: -1.91999e-08 (F: -1.91999e-08, A: 0, C: 0)
Current Box:  36.12104   0.00531 -16.56727 [A]
               0.00000  30.14940   0.00372 [A]
               0.00000   0.00000  34.27258 [A]
Box-lengths:  36.12104  30.14940  38.06684 Box-angles:   89.99880 115.79900  89.98990 [degrees]
Volume: 37323.78736 [A^3]

Loadings per component:
----------------------------------------------------------------------------------------------------------------------------------------------------
Component 0 (CH4), current number of integer/fractional/reaction molecules: 55/0/0, density:  39.25521 [kg/m^3]
	absolute adsorption:   1.14583 [mol/uc],         1.6142 [mol/kg],             25.8962 [mg/g]
	                                                36.1814 [cm^3 STP/g],         54.8460 [cm^3 STP/cm^3]
	excess adsorption:     1.14583 [mol/uc],         1.6142 [mol/kg],             25.8962 [mg/g]
	                                                36.1814 [cm^3 STP/g],         54.8460 [cm^3 STP/cm^3]
----------------------------------------------------------------------------------------------------------------------------------------------------
Degrees of freedom: 165 0 165 0
Number of Framework-atoms:   2112
Number of Adsorbates:          55 (55 integer, 0 fractional, 0 reaction)
Number of Cations:              0 (0 integer, 0 fractional, 0 reaction

Current total potential energy:           -165658.0155967805 [K]
	Current Host-Host energy:                     0.0000000000 [K]
	Current Host-Adsorbate energy:          -143884.6392352148 [K]
	Current Host-Cation energy:                   0.0000000000 [K]
	Current Adsorbate-Adsorbate energy:       -1783.0035564930 [K]
	Current Cation-Cation energy:                 0.0000000000 [K]
	Current Adsorbate-Cation energy:              0.0000000000 [K]



Average Properties at Current cycle: 0 out of 20000
========================================================================================

Framework surface area:       0.0000000000 [m^2/g]        0.0000000000 [m^2/cm^3]       0.0000000000 [A^2]
	Framework 0 individual surface area:       0.0000000000 [m^2/g]        0.0000000000 [m^2/cm^3]       0.0000000000 [A^2]
	Cation surface area:                       0.0000000000 [m^2/g]        0.0000000000 [m^2/cm^3]       0.0000000000 [A^2]
Compressibility:       0.0000000000 [-]
Henry coefficients
	Component 0: 0 [mol/kg/Pa] (Rosenbluth factor new: 0 [-])
Energy <U_gh>_1-<U_h>_0 from Widom


Current cycle: 0 out of 20000
========================================================================================================

Net charge: -1.91999e-08 (F: -1.91999e-08, A: 0, C: 0)
Current Box:  36.12104   0.00531 -16.56727 [A]   Average Box:  36.12104   0.00531 -16.56727 [A]
               0.00000  30.14940   0.00372 [A]                  0.00000  30.14940   0.00372 [A]
               0.00000   0.00000  34.27258 [A]                  0.00000   0.00000  34.27258 [A]
Box-lengths:   36.12104  30.14940  38.06684 [A] Average:  36.12104  30.14940  38.06684 [A]
Box-angles:   89.99880 115.79900  89.98990 [degrees] Average:  89.99880 115.79900  89.98990 [degrees]
Volume: 37323.78736 [A^3] Average Volume: 37323.78736 [A^3]

Loadings per component:
----------------------------------------------------------------------------------------------------------------------------------------------------
Component 0 (CH4), current number of integer/fractional/reaction molecules: 61/0/0 (avg.  61.00000), density:  43.53760 (avg.  43.53760) [kg/m^3]
	absolute adsorption:   1.27083 (avg.   1.27083) [mol/uc],   1.7903297306 (avg.   1.7903297306) [mol/kg],  28.7212930900 (avg.  28.7212930900) [mg/g]
	                      40.1284071619 (avg.  40.1284071619) [cm^3 STP/g],   60.8291901825 (avg.  60.8291901825) [cm^3 STP/cm^3]
	excess adsorption:     1.2708333333 (avg.   1.2708333333) [mol/uc],   1.7903297306 (avg.   1.7903297306) [mol/kg],  28.7212930900 (avg.  28.7212930900) [mg/g]
	                      40.1284071619 (avg.  40.1284071619) [cm^3 STP/g],   60.8291901825 (avg.  60.8291901825) [cm^3 STP/cm^3]
----------------------------------------------------------------------------------------------------------------------------------------------------
Degrees of freedom: 183 0 183 0
Number of Framework-atoms:   2112
Number of Adsorbates:          61 (61 integer, 0 fractional, 0 reaction)
Number of Cations:              0 (0 integer, 0 fractional, 0 reaction)

Current total potential energy:           -182741.0569785349 [K]  (avg.     -182741.0569785349)
	Current Host-Host energy:                     0.0000000000 [K]  (avg.           0.0000000000)
	Current Host-Adsorbate energy:          -160502.0960242302 [K]  (avg.     -160502.0960242302)
	Current Host-Cation energy:                   0.0000000000 [K]  (avg.           0.0000000000)
	Current Adsorbate-Adsorbate energy:       -1939.0954022870 [K]  (avg.       -1939.0954022870)
	Current Cation-Cation energy:                 0.0000000000 [K]  (avg.           0.0000000000)
	Current Adsorbate-Cation energy:              0.0000000000 [K]  (avg.           0.0000000000)



Current cycle: 5000 out of 20000
========================================================================================================

Net charge: -1.91999e-08 (F: -1.91999e-08, A: 0, C: 0)
Current Box:  36.12104   0.00531 -16.56727 [A]   Average Box:  36.12104   0.00531 -16.56727 [A]
               0.00000  30.14940   0.00372 [A]                  0.00000  30.14940   0.00372 [A]
               0.00000   0.00000  34.27258 [A]                  0.00000   0.00000  34.27258 [A]
Box-lengths:   36.12104  30.14940  38.06684 [A] Average:  36.12104  30.14940  38.06684 [A]
Box-angles:   89.99880 115.79900  89.98990 [degrees] Average:  89.99880 115.79900  89.98990 [degrees]
Volume: 37323.78736 [A^3] Average Volume: 37323.78736 [A^3]

Loadings per component:
----------------------------------------------------------------------------------------------------------------------------------------------------
Component 0 (CH4), current number of integer/fractional/reaction molecules: 43/0/0 (avg.  57.51590), density:  30.69044 (avg.  41.05089) [kg/m^3]
	absolute adsorption:   0.89583 (avg.   1.19825) [mol/uc],   1.2620357117 (avg.   1.6880724600) [mol/kg],  20.2461574241 (avg.  27.0808349167) [mg/g]
	                      28.2872378355 (avg.  37.8364151787) [cm^3 STP/g],   42.8795930795 (avg.  57.3548430528) [cm^3 STP/cm^3]
	excess adsorption:     0.8958333333 (avg.   1.1982478504) [mol/uc],   1.2620357117 (avg.   1.6880724600) [mol/kg],  20.2461574241 (avg.  27.0808349167) [mg/g]
	                      28.2872378355 (avg.  37.8364151787) [cm^3 STP/g],   42.8795930795 (avg.  57.3548430528) [cm^3 STP/cm^3]
----------------------------------------------------------------------------------------------------------------------------------------------------
Degrees of freedom: 129 0 129 0
Number of Framework-atoms:   2112
Number of Adsorbates:          43 (43 integer, 0 fractional, 0 reaction)
Number of Cations:              0 (0 integer, 0 fractional, 0 reaction)

Current total potential energy:           -137716.9617606218 [K]  (avg.     -172907.1476731791)
	Current Host-Host energy:                     0.0000000000 [K]  (avg.           0.0000000000)
	Current Host-Adsorbate energy:          -117376.9536373950 [K]  (avg.     -150989.0155814136)
	Current Host-Cation energy:                   0.0000000000 [K]  (avg.           0.0000000000)
	Current Adsorbate-Adsorbate energy:        -961.5793074429 [K]  (avg.       -1797.3074173663)
	Current Cation-Cation energy:                 0.0000000000 [K]  (avg.           0.0000000000)
	Current Adsorbate-Cation energy:              0.0000000000 [K]  (avg.           0.0000000000)



Average Properties at Current cycle: 10000 out of 20000
========================================================================================

Framework surface area:       0.0000000000 [m^2/g]        0.0000000000 [m^2/cm^3]       0.0000000000 [A^2]
	Framework 0 individual surface area:       0.0000000000 [m^2/g]        0.0000000000 [m^2/cm^3]       0.0000000000 [A^2]
	Cation surface area:                       0.0000000000 [m^2/g]        0.0000000000 [m^2/cm^3]       0.0000000000 [A^2]
Compressibility:       0.0000000000 [-]
Henry coefficients
	Component 0: 0 [mol/kg/Pa] (Rosenbluth factor new: 0 [-])
Energy <U_gh>_1-<U_h>_0 from Widom


Current cycle: 10000 out of 20000
========================================================================================================

Net charge: -1.91999e-08 (F: -1.91999e-08, A: 0, C: 0)
Current Box:  36.12104   0.00531 -16.56727 [A]   Average Box:  36.12104   0.00531 -16.56727 [A]
               0.00000  30.14940   0.00372 [A]                  0.00000  30.14940   0.00372 [A]
               0.00000   0.00000  34.27258 [A]                  0.00000   0.00000  34.27258 [A]
Box-lengths:   36.12104  30.14940  38.06684 [A] Average:  36.12104  30.14940  38.06684 [A]
Box-angles:   89.99880 115.79900  89.98990 [degrees] Average:  89.99880 115.79900  89.98990 [degrees]
Volume: 37323.78736 [A^3] Average Volume: 37323.78736 [A^3]

Loadings per component:
----------------------------------------------------------------------------------------------------------------------------------------------------
Component 0 (CH4), current number of integer/fractional/reaction molecules: 63/0/0 (avg.  57.74633), density:  44.96506 (avg.  41.21535) [kg/m^3]
	absolute adsorption:   1.31250 (avg.   1.20305) [mol/uc],   1.8490290660 (avg.   1.6948354613) [mol/kg],  29.6629748307 (avg.  27.1893300943) [mg/g]
	                      41.4440926426 (avg.  37.9880009254) [cm^3 STP/g],   62.8235898606 (avg.  57.5846263626) [cm^3 STP/cm^3]
	excess adsorption:     1.3125000000 (avg.   1.2030484452) [mol/uc],   1.8490290660 (avg.   1.6948354613) [mol/kg],  29.6629748307 (avg.  27.1893300943) [mg/g]
	                      41.4440926426 (avg.  37.9880009254) [cm^3 STP/g],   62.8235898606 (avg.  57.5846263626) [cm^3 STP/cm^3]
----------------------------------------------------------------------------------------------------------------------------------------------------
Degrees of freedom: 189 0 189 0
Number of Framework-atoms:   2112
Number of Adsorbates:          63 (63 integer, 0 fractional, 0 reaction)
Number of Cations:              0 (0 integer, 0 fractional, 0 reaction)

Current total potential energy:           -185442.2174613377 [K]  (avg.     -173571.2134511476)
	Current Host-Host energy:                     0.0000000000 [K]  (avg.           0.0000000000)
	Current Host-Adsorbate energy:          -162793.6082862940 [K]  (avg.     -151622.6273741187)
	Current Host-Cation energy:                   0.0000000000 [K]  (avg.           0.0000000000)
	Current Adsorbate-Adsorbate energy:       -2245.0577811124 [K]  (avg.       -1815.8180627762)
	Current Cation-Cation energy:                 0.0000000000 [K]  (avg.           0.0000000000)
	Current Adsorbate-Cation energy:              0.0000000000 [K]  (avg.           0.0000000000)



Current cycle: 15000 out of 20000
========================================================================================================

Net charge: -1.91999e-08 (F: -1.91999e-08, A: 0, C: 0)
Current Box:  36.12104   0.00531 -16.56727 [A]   Average Box:  36.12104   0.00531 -16.56727 [A]
               0.00000  30.14940   0.00372 [A]                  0.00000  30.14940   0.00372 [A]
               0.00000   0.00000  34.27258 [A]                  0.00000   0.00000  34.27258 [A]
Box-lengths:   36.12104  30.14940  38.06684 [A] Average:  36.12104  30.14940  38.06684 [A]
Box-angles:   89.99880 115.79900  89.98990 [degrees] Average:  89.99880 115.79900  89.98990 [degrees]
Volume: 37323.78736 [A^3] Average Volume: 37323.78736 [A^3]

Loadings per component:
----------------------------------------------------------------------------------------------------------------------------------------------------
Component 0 (CH4), current number of integer/fractional/reaction molecules: 64/0/0 (avg.  57.79321), density:  45.67879 (avg.  41.24882) [kg/m^3]
	absolute adsorption:   1.33333 (avg.   1.20403) [mol/uc],   1.8783787337 (avg.   1.6962116208) [mol/kg],  30.1338157010 (avg.  27.2114070779) [mg/g]
	                      42.1019353830 (avg.  38.0188461310) [cm^3 STP/g],   63.8207896997 (avg.  57.6313834858) [cm^3 STP/cm^3]
	excess adsorption:     1.3333333333 (avg.   1.2040252872) [mol/uc],   1.8783787337 (avg.   1.6962116208) [mol/kg],  30.1338157010 (avg.  27.2114070779) [mg/g]
	                      42.1019353830 (avg.  38.0188461310) [cm^3 STP/g],   63.8207896997 (avg.  57.6313834858) [cm^3 STP/cm^3]
----------------------------------------------------------------------------------------------------------------------------------------------------
Degrees of freedom: 192 0 192 0
Number of Framework-atoms:   2112
Number of Adsorbates:          64 (64 integer, 0 fractional, 0 reaction)
Number of Cations:              0 (0 integer, 0 fractional, 0 reaction)

Current total potential energy:           -190861.9553219663 [K]  (avg.     -173756.4757624423)
	Current Host-Host energy:                     0.0000000000 [K]  (avg.           0.0000000000)
	Current Host-Adsorbate energy:          -168120.2841924538 [K]  (avg.     -151805.2295907814)
	Current Host-Cation energy:                   0.0000000000 [K]  (avg.           0.0000000000)
	Current Adsorbate-Adsorbate energy:       -2286.1790159453 [K]  (avg.       -1816.1396161455)
	Current Cation-Cation energy:                 0.0000000000 [K]  (avg.           0.0000000000)
	Current Adsorbate-Cation energy:              0.0000000000 [K]  (avg.           0.0000000000)



+++++++++++++++++++++++++++++++++++++++++++++++++++++++++++++++++++++++++
Finishing simulation
+++++++++++++++++++++++++++++++++++++++++++++++++++++++++++++++++++++++++




Current (running energy) Energy Status
===========================================================================

Internal energy:
Host stretch energy:                                            0.00000000
Host UreyBradley energy:                                        0.00000000
Host bend energy:                                               0.00000000
Host inversion-bend energy:                                     0.00000000
Host torsion energy:                                            0.00000000
Host improper torsion energy:                                   0.00000000
Host out-of-plane energy:                                       0.00000000
Host stretch/stretch energy:                                    0.00000000
Host bend/bend energy:                                          0.00000000
Host stretch/bend energy:                                       0.00000000
Host stretch/torsion energy:                                    0.00000000
Host bend/torsion energy:                                       0.00000000

Adsorbate stretch energy:                                       0.00000000
Adsorbate UreyBradley energy:                                   0.00000000
Adsorbate bend energy:                                          0.00000000
Adsorbate inversion-bend energy:                                0.00000000
Adsorbate torsion energy:                                       0.00000000
Adsorbate improper torsion energy:                              0.00000000
Adsorbate out-of-plane energy:                                  0.00000000
Adsorbate stretch/stretch energy:                               0.00000000
Adsorbate bend/bend energy:                                     0.00000000
Adsorbate stretch/bend energy:                                  0.00000000
Adsorbate stretch/torsion energy:                               0.00000000
Adsorbate bend/torsion energy:                                  0.00000000
Adsorbate intra VDW energy:                                     0.00000000
Adsorbate intra charge-charge Coulomb energy:                   0.00000000
Adsorbate intra charge-bonddipole Coulomb energy:               0.00000000
Adsorbate intra bonddipole-bonddipole Coulomb energy:           0.00000000

Cation stretch energy:                                          0.00000000
Cation UreyBradley energy:                                      0.00000000
Cation bend energy:                                             0.00000000
Cation inversion-bend energy:                                   0.00000000
Cation torsion energy:                                          0.00000000
Cation improper torsion energy:                                 0.00000000
Cation out-of-plane energy:                                     0.00000000
Cation stretch/stretch energy:                                  0.00000000
Cation bend/bend energy:                                        0.00000000
Cation stretch/bend energy:                                     0.00000000
Cation stretch/torsion energy:                                  0.00000000
Cation bend/torsion energy:                                     0.00000000
Cation intra VDW energy:                                        0.00000000
Cation intra charge-charge Coulomb energy:                      0.00000000
Cation intra charge-bonddipole Coulomb energy:                  0.00000000
Cation intra bonddipole-bonddipole Coulomb energy:              0.00000000

Host/Host energy:                                             0.00000000
	Host/Host VDW energy:                                         0.00000000
	Host/Host Coulomb energy:                                     0.00000000
	Host/Host charge-charge Real energy:                          0.00000000
	Host/Host charge-charge Fourier energy:                       0.00000000
	Host/Host charge-bonddipole Real energy:                      0.00000000
	Host/Host charge-bonddipole Fourier energy:                   0.00000000
	Host/Host bondipole-bonddipole Real energy:                   0.00000000
	Host/Host bondipole-bonddipole Fourier energy:                0.00000000

Host/Adsorbate energy:                                  -128871.64688140
	Host/Adsorbate VDW energy:                              -128871.64688140
	Host/Adsorbate Coulomb energy:                                0.00000000
	Host/Adsorbate charge-charge Real energy:                     0.00000000
	Host/Adsorbate charge-charge Fourier energy:                  0.00000000
	Host/Adsorbate charge-bonddipole Real energy:                 0.00000000
	Host/Adsorbate charge-bonddipole Fourier energy:              0.00000000
	Host/Adsorbate bondipole-bonddipole Real energy:              0.00000000
	Host/Adsorbate bondipole-bonddipole Fourier energy:           0.00000000

Host/Cation energy:                                           0.00000000
	Host/Cation VDW energy:                                       0.00000000
	Host/Cation Coulomb energy:                                   0.00000000
	Host/Cation charge-charge Real energy:                        0.00000000
	Host/Cation charge-charge Fourier energy:                     0.00000000
	Host/Cation charge-bonddipole Real energy:                    0.00000000
	Host/Cation charge-bonddipole Fourier energy:                 0.00000000
	Host/Cation bondipole-bonddipole Real energy:                 0.00000000
	Host/Cation bondipole-bonddipole Fourier energy:              0.00000000

Adsorbate/Adsorbate energy:                                    -1460.79111689
	Adsorbate/Adsorbate VDW energy:                                -1460.79111689
	Adsorbate/Adsorbate Coulomb energy:                                0.00000000
	Adsorbate/Adsorbate charge-charge Real energy:                     0.00000000
	Adsorbate/Adsorbate charge-charge Fourier energy:                  0.00000000
	Adsorbate/Adsorbate charge-bonddipole Real energy:                 0.00000000
	Adsorbate/Adsorbate charge-bonddipole Fourier energy:              0.00000000
	Adsorbate/Adsorbate bondipole-bonddipole Real energy:              0.00000000
	Adsorbate/Adsorbate bondipole-bonddipole Fourier energy:           0.00000000

Adsorbate/Cation energy:                                           0.00000000
	Adsorbate/Cation VDW energy:                                       0.00000000
	Adsorbate/Cation Coulomb energy:                                   0.00000000
	Adsorbate/Cation charge-charge Real energy:                        0.00000000
	Adsorbate/Cation charge-charge Fourier energy:                     0.00000000
	Adsorbate/Cation charge-bonddipole Real energy:                    0.00000000
	Adsorbate/Cation charge-bonddipole Fourier energy:                 0.00000000
	Adsorbate/Cation bondipole-bonddipole Real energy:                 0.00000000
	Adsorbate/Cation bondipole-bonddipole Fourier energy:              0.00000000

Cation/Cation energy:                                           0.00000000
	Cation/Cation VDW energy:                                       0.00000000
	Cation/Cation Coulomb energy:                                   0.00000000
	Cation/Cation charge-charge Real energy:                        0.00000000
	Cation/Cation charge-charge Fourier energy:                     0.00000000
	Cation/Cation charge-bonddipole Real energy:                    0.00000000
	Cation/Cation charge-bonddipole Fourier energy:                 0.00000000
	Cation/Cation bondipole-bonddipole Real energy:                 0.00000000
	Cation/Cation bondipole-bonddipole Fourier energy:              0.00000000

Polarization energy:
	Host polarization energy:                                     0.00000000
	Adsorbate polarization energy:                                0.00000000
	Cation polarization energy:                                   0.00000000
	Host back-polarization energy:                                     0.00000000
	Adsorbate back-polarization energy:                                0.00000000
	Cation back-polarization energy:                                   0.00000000

Tail-correction energy:                                  -19734.25515833

Distance constraints energy:                                  0.00000000
Angle constraints energy:                                     0.00000000
Dihedral constraints energy:                                  0.00000000
Inversion-bend constraints energy:                            0.00000000
Out-of-plane distance constraints energy:                     0.00000000
Exclusion constraints energy:                                 0.00000000

===================================================================
Total energy: -150066.693156615627
	Total Van der Waals: -130332.437998
	Total Coulomb: 0.000000

	Total Polarization: 0.000000

Monte-Carlo moves statistics
===========================================================================

Performance of the small-MC scheme
==================================

Component 0 [CH4]
----------------------------------------------
Bead: 0



Performance of the translation move:
======================================
Component 0 [CH4]
	total        96783.000000 96531.000000 96334.000000
	succesfull   65670.000000 59402.000000 46753.000000
	accepted   0.678528 0.615367 0.485322
	displacement 1.000000 1.000000 0.773154


Random translation move was OFF for all components

Performance of the rotation move:
=================================
Component 0 [CH4]
	total        97207.000000 97073.000000 96759.000000
	succesfull   97207.000000 97073.000000 96759.000000
	accepted   1.000000 1.000000 1.000000
	angle-change 142.382812 142.382812 142.382812


Random rotation move was OFF for all components

Performance of the swap addition move:
======================================
Component [CH4] total tried: 144717.000000 succesfull growth: 117503.000000 (81.195022 [%]) accepted: 14117.000000 (9.754901 [%])

Performance of the swap deletion move:
======================================
Component [CH4] total tried: 145083.000000 succesfull growth: 145083.000000 (100.000000 [%]) accepted: 14128.000000 (9.737874 [%])

Performance of the Reinsertion move:
====================================
Component [CH4] total tried: 289443.000000 succesfull growth: 235510.000000 (81.366625 [%]) accepted: 13764.000000 (4.755340 [%])

Reinsertion-in-plane move was OFF for all components

Reinsertion-in-place move was OFF for all components

Partial reinsertion move was OFF for all components

Identity change move was OFF for all components

Parallel tempering move was OFF

Hyper parallel tempering move was OFF

Parallel mol-fraction move was OFF

Chiral inversion move was OFF

Volume move was OFF

Box shape change move was OFF

Framework change move was OFF

Framework shift move was OFF

Hybrid MC/MD move in the NVE-ensemble was OFF

Hybrid MC/MD in the NPH-ensemble move was OFF

Hybrid MC/MD in the NPH-ensemble (Parrinello-Rahman) move was OFF

Gibbs volume change move was OFF

Gibbs swap move was OFF for all components

Gibbs identity change move was OFF for all components

CFCMC swap lambda move was OFF for all components

CB/CFCMC swap lambda move was OFF for all components

CFCMC Gibbs lambda move was OFF for all components

CB/CFCMC Gibbs lambda move was OFF for all components

No reactions present, RXMC is OFF

Exchange fractional-particle move was OFF for all components

CFCMC Gibbs Lambda-change move was OFF for all components

CFCMC Gibbs Swap-Fractional-Molecule-To-Other-Box move was OFF for all components

CFCMC Gibbs Swap-Fractional-Molecule-To-Other-Box move was OFF for all components

CFCMC swap lambda move was OFF for all components

Gibbs Widom move was OFF for all components



Total CPU timings:
===========================================
initialization:            433.129293 [s]
equilibration:                      0 [s]
production run:            880.355609 [s]
total time:               1313.484902 [s]

Production run CPU timings of the MC moves:
===========================================
Component: 0 (CH4)
	translation:                                133.109796 [s]
	random translation:                                  0 [s]
	rotation:                                    133.91771 [s]
	random rotation:                                     0 [s]
	partial reinsertion:                                 0 [s]
	reinsertion:                                314.271197 [s]
	reinsertion in-place:                                0 [s]
	reinsertion in-plane:                                0 [s]
	identity switch:                                     0 [s]
	swap (insertion):                           149.521677 [s]
	swap (deletion):                             148.05411 [s]
	swap lambda (CFMC):                                  0 [s]
	swap lambda (CB/CFMC):                               0 [s]
	Widom:                                               0 [s]
	CF-Widom:                                            0 [s]
	Gibbs Widom:                                         0 [s]
	surface area:                                        0 [s]
	Gibbs particle transform:                            0 [s]
	Gibbs particle transform (CFMC):                     0 [s]
	Gibbs particle transform (CB/CFMC):                  0 [s]
	Gibbs indentity change:                              0 [s]
	Exchange fract./int. particle:                       0 [s]
	Swap Gibbs-fractional molecules:                     0 [s]
	Change Gibs-lambda value:                            0 [s]
	Convert Gibbs fract. to integer:                     0 [s]

Total all components:
	translation:                                133.109796 [s]
	random translation:                                  0 [s]
	rotation:                                    133.91771 [s]
	random rotation:                                     0 [s]
	partial reinsertion:                                 0 [s]
	reinsertion:                                314.271197 [s]
	reinsertion in-place:                                0 [s]
	reinsertion in-plane:                                0 [s]
	identity switch:                                     0 [s]
	swap (insertion):                           149.521677 [s]
	swap (deletion):                             148.05411 [s]
	swap lambda (CFMC):                                  0 [s]
	swap lambda (CB/CFMC):                               0 [s]
	Widom:                                               0 [s]
	CF-Widom:                                            0 [s]
	Gibbs Widom:                                         0 [s]
	surface area:                                        0 [s]
	Gibbs particle transform:                            0 [s]
	Gibbs particle transform (CFMC):                     0 [s]
	Gibbs particle transform (CB/CFMC):                  0 [s]
	Gibbs identity change:                               0 [s]
	Exchange fract./int. particle:                       0 [s]
	Swap Gibbs-fractional molecules:                     0 [s]
	Change Gibs-lambda value:                            0 [s]
	Convert Gibbs fract. to integer:                     0 [s]

System moves:
	parallel tempering:                             0 [s]
	hyper parallel tempering:                       0 [s]
	mol-fraction replica-exchange:                  0 [s]
	chiral inversion:                               0 [s]
	hybrid MC/MD (NVE):                             0 [s]
	alchemical transformation:                      0 [s]
	widom osmostat:                                 0 [s]
	hybrid MC/MD (NPH):                             0 [s]
	hybrid MC/MD (NPHPR):                           0 [s]
	volume change:                                  0 [s]
	box change:                                     0 [s]
	Gibbs volume change:                            0 [s]
	framework change:                               0 [s]
	framework shift:                                0 [s]
	reaction MC move:                               0 [s]

Production run CPU timings of the MC moves summed over all systems and components:
==================================================================================

Particles moves:
	translation:                                133.109796 [s]
	random translation:                                  0 [s]
	rotation:                                    133.91771 [s]
	random rotation:                                     0 [s]
[...]
	Block[ 3]            0.00000 [K]
	Block[ 4]            0.00000 [K]
	------------------------------------------------------------------------------
	Average              0.00000 [K] +/-            0.00000 [K]

Average Cation Torsion energy:
==============================
	Block[ 0]            0.00000 [K]
	Block[ 1]            0.00000 [K]
	Block[ 2]            0.00000 [K]
	Block[ 3]            0.00000 [K]
	Block[ 4]            0.00000 [K]
	------------------------------------------------------------------------------
	Average              0.00000 [K] +/-            0.00000 [K]

Average Cation Improper Torsion energy:
=======================================
	Block[ 0]            0.00000 [K]
	Block[ 1]            0.00000 [K]
	Block[ 2]            0.00000 [K]
	Block[ 3]            0.00000 [K]
	Block[ 4]            0.00000 [K]
	------------------------------------------------------------------------------
	Average              0.00000 [K] +/-            0.00000 [K]

Average Cation Bond-Bond cross term energy:
=================================================
	Block[ 0]            0.00000 [K]
	Block[ 1]            0.00000 [K]
	Block[ 2]            0.00000 [K]
	Block[ 3]            0.00000 [K]
	Block[ 4]            0.00000 [K]
	------------------------------------------------------------------------------
	Average              0.00000 [K] +/-            0.00000 [K]

Average Cation Bend-Bend cross term energy:
===========================================
	Block[ 0]            0.00000 [K]
	Block[ 1]            0.00000 [K]
	Block[ 2]            0.00000 [K]
	Block[ 3]            0.00000 [K]
	Block[ 4]            0.00000 [K]
	------------------------------------------------------------------------------
	Average              0.00000 [K] +/-            0.00000 [K]

Average Cation Bond-Bend cross term energy:
==============================================
	Block[ 0]            0.00000 [K]
	Block[ 1]            0.00000 [K]
	Block[ 2]            0.00000 [K]
	Block[ 3]            0.00000 [K]
	Block[ 4]            0.00000 [K]
	------------------------------------------------------------------------------
	Average              0.00000 [K] +/-            0.00000 [K]

Average Cation Bond-Torsion cross term energy:
==============================================
	Block[ 0]            0.00000 [K]
	Block[ 1]            0.00000 [K]
	Block[ 2]            0.00000 [K]
	Block[ 3]            0.00000 [K]
	Block[ 4]            0.00000 [K]
	------------------------------------------------------------------------------
	Average              0.00000 [K] +/-            0.00000 [K]

Average Cation Bend-Torsion cross term energy:
==============================================
	Block[ 0]            0.00000 [K]
	Block[ 1]            0.00000 [K]
	Block[ 2]            0.00000 [K]
	Block[ 3]            0.00000 [K]
	Block[ 4]            0.00000 [K]
	------------------------------------------------------------------------------
	Average              0.00000 [K] +/-            0.00000 [K]

Average Cation Intra Van der Waals energy:
==========================================
	Block[ 0]            0.00000 [K]
	Block[ 1]            0.00000 [K]
	Block[ 2]            0.00000 [K]
	Block[ 3]            0.00000 [K]
	Block[ 4]            0.00000 [K]
	------------------------------------------------------------------------------
	Average              0.00000 [K] +/-            0.00000 [K]

Average Cation Intra charge-charge Coulomb energy:
====================================
	Block[ 0]            0.00000 [K]
	Block[ 1]            0.00000 [K]
	Block[ 2]            0.00000 [K]
	Block[ 3]            0.00000 [K]
	Block[ 4]            0.00000 [K]
	------------------------------------------------------------------------------
	Average              0.00000 [K] +/-            0.00000 [K]

Average Cation Intra charge-bonddipole Coulomb energy:
====================================
	Block[ 0]            0.00000 [K]
	Block[ 1]            0.00000 [K]
	Block[ 2]            0.00000 [K]
	Block[ 3]            0.00000 [K]
	Block[ 4]            0.00000 [K]
	------------------------------------------------------------------------------
	Average              0.00000 [K] +/-            0.00000 [K]

Average Cation Intra bonddipole-bonddipole Coulomb energy:
====================================
	Block[ 0]            0.00000 [K]
	Block[ 1]            0.00000 [K]
	Block[ 2]            0.00000 [K]
	Block[ 3]            0.00000 [K]
	Block[ 4]            0.00000 [K]
	------------------------------------------------------------------------------
	Average              0.00000 [K] +/-            0.00000 [K]

Average Host-Host energy:
=========================
	Block[ 0] 0.00000            Van der Waals: 0.00000            Coulomb: 0.00000            [K]
	Block[ 1] 0.00000            Van der Waals: 0.00000            Coulomb: 0.00000            [K]
	Block[ 2] 0.00000            Van der Waals: 0.00000            Coulomb: 0.00000            [K]
	Block[ 3] 0.00000            Van der Waals: 0.00000            Coulomb: 0.00000            [K]
	Block[ 4] 0.00000            Van der Waals: 0.00000            Coulomb: 0.00000            [K]
	------------------------------------------------------------------------------
	Average   0.00000            Van der Waals: 0.000000           Coulomb: 0.00000            [K]
	      +/- 0.00000                       +/- 0.000000                +/- 0.00000            [K]

Average Adsorbate-Adsorbate energy:
===================================
	Block[ 0] -1778.51150        Van der Waals: -1778.51150        Coulomb: 0.00000            [K]
	Block[ 1] -1825.34707        Van der Waals: -1825.34707        Coulomb: 0.00000            [K]
	Block[ 2] -1859.13612        Van der Waals: -1859.13612        Coulomb: 0.00000            [K]
	Block[ 3] -1808.50476        Van der Waals: -1808.50476        Coulomb: 0.00000            [K]
	Block[ 4] -1878.23854        Van der Waals: -1878.23854        Coulomb: 0.00000            [K]
	------------------------------------------------------------------------------
	Average   -1829.94760        Van der Waals: -1829.947595       Coulomb: 0.00000            [K]
	      +/- 49.31061                      +/- 49.310612               +/- 0.00000            [K]

Average Cation-Cation energy:
=============================
	Block[ 0] 0.00000            Van der Waals: 0.00000            Coulomb: 0.00000            [K]
	Block[ 1] 0.00000            Van der Waals: 0.00000            Coulomb: 0.00000            [K]
	Block[ 2] 0.00000            Van der Waals: 0.00000            Coulomb: 0.00000            [K]
	Block[ 3] 0.00000            Van der Waals: 0.00000            Coulomb: 0.00000            [K]
	Block[ 4] 0.00000            Van der Waals: 0.00000            Coulomb: 0.00000            [K]
	------------------------------------------------------------------------------
	Average   0.00000            Van der Waals: 0.000000           Coulomb: 0.00000            [K]
	      +/- 0.00000                       +/- 0.000000                +/- 0.00000            [K]

Average Host-Adsorbate energy:
==============================
	Block[ 0] -150204.61503      Van der Waals: -150204.61503      Coulomb: 0.00000            [K]
	Block[ 1] -151543.50926      Van der Waals: -151543.50926      Coulomb: 0.00000            [K]
	Block[ 2] -153853.94151      Van der Waals: -153853.94151      Coulomb: 0.00000            [K]
	Block[ 3] -151718.11951      Van der Waals: -151718.11951      Coulomb: 0.00000            [K]
	Block[ 4] -154184.46640      Van der Waals: -154184.46640      Coulomb: 0.00000            [K]
	------------------------------------------------------------------------------
	Average   -152300.93034      Van der Waals: -152300.930340     Coulomb: 0.00000            [K]
	      +/- 2083.61360                    +/- 2083.613602             +/- 0.00000            [K]

Average Host-Cation energy:
===========================
	Block[ 0] 0.00000            Van der Waals: 0.00000            Coulomb: 0.00000            [K]
	Block[ 1] 0.00000            Van der Waals: 0.00000            Coulomb: 0.00000            [K]
	Block[ 2] 0.00000            Van der Waals: 0.00000            Coulomb: 0.00000            [K]
	Block[ 3] 0.00000            Van der Waals: 0.00000            Coulomb: 0.00000            [K]
	Block[ 4] 0.00000            Van der Waals: 0.00000            Coulomb: 0.00000            [K]
	------------------------------------------------------------------------------
	Average   0.00000            Van der Waals: 0.000000           Coulomb: 0.00000            [K]
	      +/- 0.00000                       +/- 0.000000                +/- 0.00000            [K]

Average Adsorbate-Cation energy:
================================
	Block[ 0] 0.00000            Van der Waals: 0.00000            Coulomb: 0.00000            [K]
	Block[ 1] 0.00000            Van der Waals: 0.00000            Coulomb: 0.00000            [K]
	Block[ 2] 0.00000            Van der Waals: 0.00000            Coulomb: 0.00000            [K]
	Block[ 3] 0.00000            Van der Waals: 0.00000            Coulomb: 0.00000            [K]
	Block[ 4] 0.00000            Van der Waals: 0.00000            Coulomb: 0.00000            [K]
	------------------------------------------------------------------------------
	Average   0.00000            Van der Waals: 0.000000           Coulomb: 0.00000            [K]
	      +/- 0.00000                       +/- 0.000000                +/- 0.00000            [K]

Host polarization energy:
=======================
	Block[ 0]            0.00000 [K]
	Block[ 1]            0.00000 [K]
	Block[ 2]            0.00000 [K]
	Block[ 3]            0.00000 [K]
	Block[ 4]            0.00000 [K]
	------------------------------------------------------------------------------
	Average              0.00000 [K] +/-            0.00000 [K]

Adsorbate polarization energy:
=======================
	Block[ 0]            0.00000 [K]
	Block[ 1]            0.00000 [K]
	Block[ 2]            0.00000 [K]
	Block[ 3]            0.00000 [K]
	Block[ 4]            0.00000 [K]
	------------------------------------------------------------------------------
	Average              0.00000 [K] +/-            0.00000 [K]

Cation polarization energy:
=======================
	Block[ 0]            0.00000 [K]
	Block[ 1]            0.00000 [K]
	Block[ 2]            0.00000 [K]
	Block[ 3]            0.00000 [K]
	Block[ 4]            0.00000 [K]
	------------------------------------------------------------------------------
	Average              0.00000 [K] +/-            0.00000 [K]

Host back-polarization energy:
=======================
	Block[ 0]            0.00000 [K]
	Block[ 1]            0.00000 [K]
	Block[ 2]            0.00000 [K]
	Block[ 3]            0.00000 [K]
	Block[ 4]            0.00000 [K]
	------------------------------------------------------------------------------
	Average              0.00000 [K] +/-            0.00000 [K]

Adsorbate back-polarization energy:
=======================
	Block[ 0]            0.00000 [K]
	Block[ 1]            0.00000 [K]
	Block[ 2]            0.00000 [K]
	Block[ 3]            0.00000 [K]
	Block[ 4]            0.00000 [K]
	------------------------------------------------------------------------------
	Average              0.00000 [K] +/-            0.00000 [K]

Cation back-polarization energy:
=======================
	Block[ 0]            0.00000 [K]
	Block[ 1]            0.00000 [K]
	Block[ 2]            0.00000 [K]
	Block[ 3]            0.00000 [K]
	Block[ 4]            0.00000 [K]
	------------------------------------------------------------------------------
	Average              0.00000 [K] +/-            0.00000 [K]

Tail-correction energy:
=======================
	Block[ 0]       -20103.58755 [K]
	Block[ 1]       -20135.99080 [K]
	Block[ 2]       -20170.37873 [K]
	Block[ 3]       -20133.11055 [K]
	Block[ 4]       -20184.75155 [K]
	------------------------------------------------------------------------------
	Average         -20145.56384 [K] +/-           40.03696 [K]

Distance-constraints energy:
=======================
	Block[ 0]            0.00000 [K]
	Block[ 1]            0.00000 [K]
	Block[ 2]            0.00000 [K]
	Block[ 3]            0.00000 [K]
	Block[ 4]            0.00000 [K]
	------------------------------------------------------------------------------
	Average              0.00000 [K] +/-            0.00000 [K]

Angle-constraints energy:
=======================
	Block[ 0]            0.00000 [K]
	Block[ 1]            0.00000 [K]
	Block[ 2]            0.00000 [K]
	Block[ 3]            0.00000 [K]
	Block[ 4]            0.00000 [K]
	------------------------------------------------------------------------------
	Average              0.00000 [K] +/-            0.00000 [K]

Dihedral-constraints energy:
=======================
	Block[ 0]            0.00000 [K]
	Block[ 1]            0.00000 [K]
	Block[ 2]            0.00000 [K]
	Block[ 3]            0.00000 [K]
	Block[ 4]            0.00000 [K]
	------------------------------------------------------------------------------
	Average              0.00000 [K] +/-            0.00000 [K]

Inversion-bend constraints energy:
=======================
	Block[ 0]            0.00000 [K]
	Block[ 1]            0.00000 [K]
	Block[ 2]            0.00000 [K]
	Block[ 3]            0.00000 [K]
	Block[ 4]            0.00000 [K]
	------------------------------------------------------------------------------
	Average              0.00000 [K] +/-            0.00000 [K]

Out-of-plane-distance constraints energy:
=======================
	Block[ 0]            0.00000 [K]
	Block[ 1]            0.00000 [K]
	Block[ 2]            0.00000 [K]
	Block[ 3]            0.00000 [K]
	Block[ 4]            0.00000 [K]
	------------------------------------------------------------------------------
	Average              0.00000 [K] +/-            0.00000 [K]

Exclusion-constraints energy:
=======================
	Block[ 0]            0.00000 [K]
	Block[ 1]            0.00000 [K]
	Block[ 2]            0.00000 [K]
	Block[ 3]            0.00000 [K]
	Block[ 4]            0.00000 [K]
	------------------------------------------------------------------------------
	Average              0.00000 [K] +/-            0.00000 [K]

Total energy:
=============
	Block[ 0]      -172086.71408 [K]
	Block[ 1]      -173504.84712 [K]
	Block[ 2]      -175883.45635 [K]
	Block[ 3]      -173659.73481 [K]
	Block[ 4]      -176247.45649 [K]
	------------------------------------------------------------------------------
	Average        -174276.44177 [K] +/-         2171.49821 [K]

Number of molecules:
====================

Component 0 [CH4]
-------------------------------------------------------------
	Block[ 0] 57.18150           [-]
	Block[ 1] 57.80700           [-]
	Block[ 2] 58.47975           [-]
	Block[ 3] 57.75425           [-]
	Block[ 4] 58.76000           [-]
	------------------------------------------------------------------------------
	Average loading absolute                             57.9965000000 +/-       0.7790830832 [-]
	Average loading absolute [molecules/unit cell]        1.2082604167 +/-       0.0162308976 [-]
	Average loading absolute [mol/kg framework]                  1.7021780036 +/-       0.0228658296 [-]
	Average loading absolute [milligram/gram framework]         27.3071225360 +/-       0.3668241570 [-]
	Average loading absolute [cm^3 (STP)/gr framework]          38.1525764913 +/-       0.5125141504 [-]
	Average loading absolute [cm^3 (STP)/cm^3 framework]        57.8341004659 +/-       0.7769015252 [-]

	Block[ 0] 57.18150           [-]
	Block[ 1] 57.80700           [-]
	Block[ 2] 58.47975           [-]
	Block[ 3] 57.75425           [-]
	Block[ 4] 58.76000           [-]
	------------------------------------------------------------------------------
	Average loading excess                             57.9965000000 +/-       0.7790830832 [-]
	Average loading excess [molecules/unit cell]        1.2082604167 +/-       0.0162308976 [-]
	Average loading excess [mol/kg framework]                    1.7021780036 +/-       0.0228658296 [-]
	Average loading excess [milligram/gram framework]           27.3071225360 +/-       0.3668241570 [-]
	Average loading excess [cm^3 (STP)/gr framework]            38.1525764913 +/-       0.5125141504 [-]
	Average loading excess [cm^3 (STP)/cm^3 framework]          57.8341004659 +/-       0.7769015252 [-]


Average Widom Rosenbluth factor:
================================
	Block[ 0] 0 [-]
	Block[ 1] 0 [-]
	Block[ 2] 0 [-]
	Block[ 3] 0 [-]
	Block[ 4] 0 [-]
	------------------------------------------------------------------------------
	[CH4] Average Widom Rosenbluth-weight:   0 +/- 0.000000 [-]

Average Widom chemical potential:
=================================
	Block[ 0] 0 [-]
	Block[ 1] 0 [-]
	Block[ 2] 0 [-]
	Block[ 3] 0 [-]
	Block[ 4] 0 [-]
	------------------------------------------------------------------------------
	[CH4] Average chemical potential:   0 +/- 0.000000 [K]

Average Widom Ideal-gas contribution:
=====================================
	Block[ 0] 0 [-]
	Block[ 1] 0 [-]
	Block[ 2] 0 [-]
	Block[ 3] 0 [-]
	Block[ 4] 0 [-]
	------------------------------------------------------------------------------
	[CH4] Average Widom Ideal-gas chemical potential:   0 +/- 0.000000 [-]

Average Widom excess contribution:
==================================
	Block[ 0] 0 [-]
	Block[ 1] 0 [-]
	Block[ 2] 0 [-]
	Block[ 3] 0 [-]
	Block[ 4] 0 [-]
	------------------------------------------------------------------------------
	[CH4] Average Widom excess chemical potential:   0 +/- 0.000000 [-]

Average Gibbs Widom Rosenbluth factor:
======================================
	Block[ 0] 0 [-]
	Block[ 1] 0 [-]
	Block[ 2] 0 [-]
	Block[ 3] 0 [-]
	Block[ 4] 0 [-]
	------------------------------------------------------------------------------
	[CH4] Average Gibbs Widom Rosenbluth-weight:   0 +/- 0.000000 [-]

Average Gibbs Widom chemical potential:
=======================================
	Block[ 0] 0 [-]
	Block[ 1] 0 [-]
	Block[ 2] 0 [-]
	Block[ 3] 0 [-]
	Block[ 4] 0 [-]
	------------------------------------------------------------------------------
	[CH4] Average Gibbs chemical potential:   0 +/- 0.000000 [K]

Average osmostat calibration for alchemical transformation:
=======================================
	Block[ 0] 0 [-]
	Block[ 1] 0 [-]
	Block[ 2] 0 [-]
	Block[ 3] 0 [-]
	Block[ 4] 0 [-]
	------------------------------------------------------------------------------
	Average osmostat calibration for alchemical transformation:   0 +/- 0.000000 [K]
	Average osmostat calibration for alchemical transformation:   0 +/- 0.000000 [kJ/mol]

Average Gibbs Widom Ideal-gas contribution:
===========================================
	Block[ 0] 0 [-]
	Block[ 1] 0 [-]
	Block[ 2] 0 [-]
	Block[ 3] 0 [-]
	Block[ 4] 0 [-]
	------------------------------------------------------------------------------
	[CH4] Average Gibbs Ideal-gas chemical potential:   0 +/- 0.000000 [-]

Average Gibbs Widom excess contribution:
===========================================
	Block[ 0] 0 [-]
	Block[ 1] 0 [-]
	Block[ 2] 0 [-]
	Block[ 3] 0 [-]
	Block[ 4] 0 [-]
	------------------------------------------------------------------------------
	[CH4] Average Gibbs excess chemical potential:   0 +/- 0.000000 [-]

Average Henry coefficient:
==========================
	Block[ 0] 0 [mol/kg/Pa]
	Block[ 1] 0 [mol/kg/Pa]
	Block[ 2] 0 [mol/kg/Pa]
	Block[ 3] 0 [mol/kg/Pa]
	Block[ 4] 0 [mol/kg/Pa]
	------------------------------------------------------------------------------
	[CH4] Average Henry coefficient:  0 +/- 0 [mol/kg/Pa]

Average adsorption energy <U_gh>_1-<U_h>_0 obtained from Widom-insertion:
(Note: the total heat of adsorption is dH=<U_gh>_1-<U_h>_0 - <U_g> - RT)
=========================================================================

Simulation finished,  0 warnings


Wed Feb 19 02:02:30 2025
Simulation finished on Wednesday, February 19.
The end time was 02:02 AM.

